# vtk DataFile Version 2.0
Unstructured Grid Example
ASCII
DATASET UNSTRUCTURED_GRID
POINTS 4482 float
-0.726896 -0.293063 -0.126868 
-0.475095 0.624749 0.133791 
-0.210254 -0.599895 0.490292 
0.035296 -0.320697 -0.734665 
0.035931 0.296688 0.745124 
0.282547 0.572872 -0.483082 
0.514381 -0.612709 -0.110310 
0.753694 0.255419 0.132069 
0.346977 0.714295 -0.602949 
-0.260750 -0.744434 0.609543 
-0.915360 -0.365592 -0.161769 
0.048905 0.369038 0.926143 
0.633902 -0.755957 -0.134878 
-0.597350 0.781824 0.163521 
0.930970 0.314139 0.165206 
0.041848 -0.393583 -0.915232 
0.736897 -0.028906 0.062884 
-0.468565 -0.331171 -0.426018 
0.314658 0.562676 -0.451200 
-0.729480 -0.161825 -0.095521 
-0.583600 0.438977 0.071696 
-0.775508 -0.311681 -0.135921 
-0.539082 -0.464095 0.162252 
-0.214495 0.481716 0.504369 
-0.072726 -0.082513 0.713990 
0.625826 0.283692 0.299104 
0.269510 0.529295 -0.509878 
0.320946 0.658795 -0.555425 
-0.246645 -0.335906 -0.594223 
0.118061 -0.026607 -0.721250 
0.109214 -0.374546 -0.663299 
-0.016801 -0.322929 -0.711994 
-0.167608 -0.332888 -0.639493 
-0.089457 -0.328172 -0.678613 
-0.323614 -0.336427 -0.542564 
-0.596343 -0.317796 -0.295907 
-0.708127 -0.317403 -0.090113 
-0.726063 -0.076013 -0.074188 
-0.675645 -0.352855 -0.033682 
-0.729617 -0.239814 -0.114383 
-0.842194 -0.337342 -0.148269 
-0.325212 0.661878 -0.019775 
-0.119164 0.672970 -0.203131 
-0.385611 0.648328 0.040616 
-0.718164 0.012648 -0.051440 
-0.654051 0.275488 0.021857 
-0.268457 0.515835 0.439229 
-0.368250 0.572122 0.301429 
-0.450473 0.612858 0.173204 
-0.158634 0.443830 0.565326 
-0.102413 0.403897 0.622128 
0.080505 0.299652 0.722273 
0.003226 0.323864 0.716038 
-0.484177 -0.496345 0.227555 
-0.425807 -0.524939 0.290868 
-0.305317 -0.571473 0.408114 
-0.241174 -0.687359 0.562770 
-0.170148 -0.611317 0.462979 
-0.249136 -0.588011 0.457190 
-0.199481 -0.554441 0.517077 
-0.111099 -0.628835 0.423146 
-0.044249 -0.645386 0.376188 
-0.120471 -0.253992 0.665746 
-0.097065 -0.169081 0.692976 
0.166444 -0.672328 0.214081 
0.025399 -0.658335 0.324850 
0.702547 -0.199123 0.017266 
0.096102 -0.668014 0.270804 
0.366323 -0.653526 0.035530 
0.302308 -0.664236 0.095366 
0.235321 -0.670619 0.155240 
0.022820 0.246494 0.744876 
0.000962 0.172298 0.743434 
0.366800 0.308819 0.547953 
0.437531 0.305906 0.490808 
0.724090 0.262925 0.173431 
0.703826 0.317071 0.037662 
0.751036 0.135787 0.103734 
0.567865 0.293190 0.365471 
0.860313 0.290730 0.152076 
0.753599 0.207688 0.120906 
0.365112 -0.542942 -0.355472 
0.418178 0.523046 -0.347951 
0.363185 0.545121 -0.403845 
0.099871 0.635583 -0.367074 
0.297661 0.608904 -0.512715 
0.211418 0.313167 -0.623500 
0.232655 0.392081 -0.586593 
0.142264 0.060135 -0.706092 
0.037254 -0.337067 -0.778947 
0.265085 -0.483842 -0.491209 
0.611325 -0.439096 -0.054281 
0.426020 -0.639453 -0.022633 
0.316189 -0.515287 -0.424753 
0.049680 -0.269474 -0.734131 
0.212447 -0.448717 -0.553365 
0.539146 -0.571351 -0.097688 
0.454046 -0.587606 -0.216568 
0.574146 -0.510116 -0.077273 
0.677267 -0.282427 -0.006478 
0.411381 -0.567058 -0.285229 
0.586103 -0.698920 -0.125654 
0.745926 0.055205 0.084070 
-0.682601 0.189649 -0.003136 
0.039405 -0.363873 -0.843602 
0.543351 -0.647903 -0.117420 
-0.589832 -0.428827 0.096015 
0.044429 0.340271 0.853800 
-0.535072 -0.325428 -0.362188 
-0.046357 0.665245 -0.260598 
-0.223342 -0.635373 0.520142 
0.146031 0.303714 0.687785 
0.678430 0.273160 0.233493 
0.734715 0.280495 0.094410 
0.528036 0.466766 -0.223693 
0.235955 0.590955 -0.454840 
0.026908 0.652970 -0.315599 
0.165976 0.146130 -0.683688 
-0.397847 -0.334851 -0.486323 
-0.651528 -0.308924 -0.229576 
-0.697962 -0.299950 -0.168621 
-0.190736 0.675675 -0.143583 
-0.259830 0.671738 -0.081987 
-0.704391 0.101917 -0.027665 
-0.620928 0.359008 0.046908 
-0.438850 0.634274 0.095284 
-0.412742 0.594757 0.233620 
-0.319759 0.545768 0.370939 
-0.549808 0.720495 0.151438 
-0.543919 0.513937 0.095657 
-0.504063 0.579622 0.117541 
-0.506343 0.664515 0.140550 
-0.047879 0.004384 0.728725 
-0.047297 0.362927 0.673177 
-0.023093 0.089998 0.738275 
-0.635718 -0.391187 0.029915 
-0.366107 -0.550701 0.351883 
-0.182790 -0.489451 0.554820 
-0.163578 -0.415476 0.594735 
-0.142738 -0.336543 0.632585 
0.722657 -0.114277 0.040507 
0.040437 0.314488 0.788852 
0.218974 0.307344 0.646895 
0.293552 0.309309 0.600290 
0.504833 0.300658 0.429703 
0.797211 0.269828 0.140279 
0.579136 0.433208 -0.158193 
0.625960 0.396457 -0.091872 
0.667257 0.356919 -0.025878 
0.473835 0.496779 -0.287331 
0.170882 0.613915 -0.414000 
0.252389 0.465599 -0.547077 
0.189070 0.230709 -0.655775 
0.646745 -0.362898 -0.030448 
0.070585 -0.195211 -0.732695 
0.093874 -0.112579 -0.729224 
0.064538 -0.340834 -0.707327 
0.159834 -0.411637 -0.611004 
0.477963 -0.624558 -0.074802 
0.490557 -0.603508 -0.153955 
-0.968710 0.073261 -0.223207 
-0.014961 0.747221 0.662410 
0.899715 0.002681 -0.432349 
-0.328011 0.509370 0.792118 
0.969136 -0.089016 0.220861 
-0.345908 -0.494909 0.794541 
-0.901305 -0.415696 -0.094873 
0.665029 -0.744485 -0.011716 
0.663545 0.027143 -0.744107 
-0.315864 0.687850 -0.648493 
-0.612999 0.105588 -0.778927 
-0.713928 -0.000567 0.698176 
-0.633913 -0.663444 -0.392774 
0.595093 0.647378 0.473945 
-0.211136 -0.927105 0.301284 
-0.410285 0.405087 0.814671 
-0.243071 0.196947 -0.945593 
-0.870013 -0.025516 -0.489813 
0.391966 -0.777737 0.485341 
0.656387 0.721899 -0.204272 
-0.030044 -0.800277 -0.593398 
0.041416 -0.855973 -0.511967 
0.854226 0.271474 -0.435713 
0.545024 -0.113719 0.828714 
0.523998 -0.238265 0.815166 
0.491856 -0.148910 -0.854355 
0.143598 -0.916462 0.368393 
0.391041 -0.100044 -0.912994 
0.089839 0.786536 0.606339 
-0.054493 -0.621624 -0.779701 
0.878062 0.007176 0.472275 
-0.196197 0.945457 0.249181 
-0.286596 0.189169 0.937761 
0.787773 -0.328562 -0.515412 
0.629720 -0.085603 -0.769838 
0.384461 -0.346658 0.852269 
0.233133 0.158125 0.957799 
0.928596 0.011330 0.361136 
0.110941 -0.894969 -0.423632 
-0.982745 0.157834 -0.049101 
-0.016380 -0.980926 -0.190121 
0.022261 0.802277 -0.594162 
-0.554898 0.822922 0.092121 
0.893828 -0.329601 0.297245 
0.277385 -0.872116 -0.393255 
-0.878428 -0.475554 -0.016598 
-0.037182 0.727132 -0.682234 
-0.713939 0.479188 -0.504621 
-0.601437 0.760163 -0.230162 
-0.214951 0.318026 -0.920865 
0.772836 -0.468160 -0.420753 
-0.218304 -0.552934 -0.799601 
0.342196 0.280925 0.894035 
-0.367314 -0.684495 -0.627208 
-0.265639 -0.673077 -0.684504 
0.521625 0.429929 -0.731886 
-0.205854 0.667897 -0.711882 
0.604407 -0.351886 -0.709793 
0.528599 -0.305301 -0.788895 
-0.276521 -0.187442 0.940776 
0.064218 -0.991231 -0.090757 
-0.134746 -0.831089 -0.534896 
0.741161 0.595114 0.298604 
-0.890352 0.332185 -0.305579 
-0.109133 0.173270 -0.975711 
-0.593712 -0.703537 0.387067 
0.948193 -0.194455 -0.237614 
0.857735 -0.436725 0.262824 
-0.995070 0.005064 0.060706 
0.640638 0.752184 0.143070 
-0.387051 0.242655 0.887499 
0.317728 0.891920 0.311528 
-0.331112 0.079839 0.938426 
0.256122 -0.665420 0.698112 
-0.751847 0.166406 0.632278 
-0.459695 0.356397 -0.811257 
-0.533596 0.639012 0.551235 
0.980589 -0.168322 0.058658 
-0.056895 -0.477877 0.872875 
-0.710246 0.106947 -0.691071 
0.882296 -0.437333 -0.162825 
0.843251 0.382726 -0.372758 
0.694814 0.680621 0.223477 
-0.009683 0.192451 0.978688 
0.869717 0.487816 -0.047674 
0.185157 -0.694732 -0.691743 
0.834684 -0.366120 -0.407962 
0.457046 -0.473215 0.747209 
-0.527720 0.482523 -0.694829 
0.377101 -0.809866 -0.447565 
0.738319 -0.588855 -0.320658 
-0.433267 -0.252532 0.863075 
0.688438 -0.710741 0.132328 
-0.925251 -0.032777 -0.370492 
0.230756 -0.441461 0.863591 
0.730077 -0.120268 0.665714 
0.715627 -0.246172 0.650917 
-0.249856 -0.688960 0.675350 
0.966481 0.233232 -0.089904 
0.761554 -0.640096 -0.088473 
-0.802220 0.547791 -0.228730 
0.649093 0.011258 0.755730 
-0.380054 -0.912159 0.124498 
-0.372882 0.585673 -0.717391 
-0.739851 0.573403 -0.346735 
0.499151 0.851726 0.145443 
-0.028954 -0.997634 -0.017166 
-0.353162 0.905444 0.219637 
0.108560 -0.413650 0.903030 
-0.401996 -0.777754 -0.474850 
0.709328 -0.132518 -0.687081 
-0.007686 -0.694184 0.716640 
-0.943632 -0.090399 0.310329 
-0.664300 0.588894 -0.456480 
-0.974030 -0.176403 -0.129556 
-0.567850 0.362227 -0.737686 
-0.468916 -0.449769 -0.757048 
0.626619 -0.673790 0.387788 
0.703933 0.251085 -0.659320 
-0.910454 -0.153481 -0.379209 
-0.340666 0.338297 -0.872581 
0.052671 0.676836 0.730445 
-0.052136 -0.408182 -0.908763 
-0.615532 -0.170685 -0.765218 
-0.269884 0.935101 -0.222080 
0.124696 0.383496 0.911544 
-0.571910 -0.426506 0.695057 
0.139035 -0.305181 0.939715 
0.583599 -0.197840 -0.784405 
-0.874317 0.441132 0.187460 
-0.516698 -0.035943 -0.853119 
-0.815406 -0.417652 0.397297 
0.157493 -0.972390 -0.164098 
-0.650137 -0.164135 0.739600 
0.564660 0.789571 0.230284 
-0.081348 0.289212 -0.951710 
0.600522 0.416930 0.676282 
0.233120 -0.967996 -0.062406 
0.411271 0.715666 -0.560505 
0.921722 0.365085 0.104161 
0.820188 0.567309 0.038968 
-0.123881 0.926908 0.346237 
-0.214875 -0.964761 0.139463 
-0.985425 0.117446 0.095332 
-0.162040 -0.654493 -0.734985 
0.318007 -0.933832 -0.132511 
0.513588 0.831847 -0.197921 
0.704066 0.462037 -0.534826 
0.346317 0.152921 0.922802 
0.469591 -0.876413 0.071078 
-0.660341 -0.497694 0.557171 
0.767863 -0.359350 0.521910 
-0.673717 0.117437 0.725177 
-0.499604 -0.315083 -0.804269 
0.810306 -0.120107 0.568818 
0.866526 -0.402550 -0.289748 
-0.753913 -0.235033 0.609869 
0.646487 0.144182 0.745065 
0.269949 0.765334 -0.575142 
0.347817 0.789626 -0.499573 
-0.201950 -0.759041 -0.614102 
-0.022789 -0.083882 -0.994179 
-0.830013 -0.188140 0.518498 
-0.716310 0.694100 -0.016134 
-0.252443 0.778627 -0.568874 
0.661265 -0.244306 -0.704386 
-0.972868 -0.215688 -0.003037 
-0.086187 -0.570881 0.812576 
0.260863 0.736770 0.619256 
0.249417 -0.937680 -0.231787 
-0.065318 -0.887749 -0.449463 
-0.493121 0.454962 0.738115 
0.177608 -0.925085 -0.332234 
0.268921 0.953013 -0.131477 
0.296277 -0.311758 -0.900921 
[...]
CELL_DATA 4032
SCALARS u float 1
LOOKUP_TABLE default
-8.804402
-9.366391
-9.515180
-9.064416
2.690434
1.894733
2.133608
2.161903
-2.204205
-2.543835
-2.448213
-2.988319
-8.352577
-8.493814
-7.967130
-7.836953
8.260928
8.443110
8.782951
8.938097
2.942303
2.619238
3.389659
2.833232
-1.622495
-1.358245
-2.121896
-1.619725
9.438089
8.775396
9.001824
9.288769
4.078318
3.397632
2.898959
-2.444828
-2.964662
-3.624546
-11.099128
-11.297508
-10.626521
10.563169
9.809109
10.329184
-1.477554
-2.610501
-1.874433
2.476878
3.267382
2.047853
10.443889
11.103980
10.884783
-9.870432
-9.276180
-10.066432
5.461403
6.109795
7.065011
6.403671
5.687379
6.653105
-10.370295
-9.319520
-9.322930
-10.360111
-10.181723
-10.175242
3.394188
4.093721
3.547801
-8.085750
-8.748672
-7.950124
-7.251336
-8.374776
-7.538320
-1.002441
-1.489130
-0.293462
0.122697
-1.079205
0.088942
-10.176889
-9.777520
-10.359915
-7.008764
-7.641475
-6.954229
-6.316561
-6.720470
-6.050445
5.702313
5.542696
6.194382
6.374969
6.442164
7.106281
3.760524
3.850462
4.915629
4.787846
4.369325
5.423857
9.105736
9.818868
10.030637
9.268214
10.024243
10.248649
1.951556
2.053374
1.646661
3.148297
2.720359
3.733831
-8.802946
-9.589170
-9.884069
-9.053394
-9.772137
-10.069826
-6.041624
-5.390392
-4.422294
-5.057595
-5.503183
-4.508347
-8.198210
-7.555956
-7.059484
-7.755742
-7.408902
-6.915158
-8.131998
-8.948174
-8.782975
-8.484802
-9.213451
-9.390634
-9.228953
-10.272239
-10.084101
-10.069041
-10.253111
-10.060958
-9.879604
-9.250020
-9.111921
-9.225691
-8.676828
-8.381217
-6.339465
-6.611321
-7.048474
-8.787078
-8.196150
-7.892747
2.042796
2.397377
2.294761
1.961056
3.180761
3.035791
2.652619
3.474586
3.405418
2.582903
2.285471
2.213195
2.200285
1.898619
2.879263
-6.060916
-5.365040
-5.609222
-3.416169
-3.253505
-2.136497
-2.256412
-3.865569
-2.688636
5.718139
4.982254
4.848441
4.165264
3.475278
4.231724
4.950748
3.394181
4.124121
2.754305
3.393803
2.701214
7.700868
6.797985
6.993033
8.217776
7.346279
7.548449
9.307725
8.472339
9.118111
8.646666
8.034644
7.833963
-6.202286
-5.569769
-5.332007
-4.786447
-4.580179
-5.402352
-3.812666
-3.983574
-3.203031
-3.068762
-4.570102
-3.745214
-2.735613
-3.306219
-2.289567
-3.081559
-2.116864
-2.422184
-1.248068
-1.667802
-1.579664
-2.399061
-3.118978
-2.062179
-3.126662
-2.008401
-2.367816
1.614869
1.621611
2.748341
2.699393
2.130559
3.269156
-2.960023
-1.791999
-1.875989
-3.046986
-2.175249
-2.259436
-2.323469
-3.102885
-1.948465
4.012714
3.594296
4.661799
5.084837
3.433311
4.466494
-2.529545
-1.494840
-1.599563
-2.697326
-1.842265
-1.964339
-1.700276
-2.842070
-2.076249
7.532813
7.724223
8.146658
7.334510
6.686550
6.867247
9.353912
10.157889
10.012828
9.222928
10.382648
10.235103
10.209728
10.435608
9.404526
9.742601
9.558445
8.917356
7.919372
8.194481
8.639256
8.374845
8.786248
9.178936
7.930920
7.542131
8.341976
8.697257
7.283365
8.086515
9.372996
10.391813
10.166942
10.217662
10.027798
9.647635
-4.387980
-5.205026
-4.426321
-3.655921
-4.473278
-3.720098
4.264696
4.862446
5.638339
5.010552
4.081510
4.805151
2.461976
2.775502
2.743495
2.405918
3.522457
3.534558
-1.762593
-1.255879
-0.159832
-0.603017
-1.236341
-0.106141
0.923963
0.548240
1.005004
-3.453358
-3.402077
-4.006371
-9.066390
-9.238637
-8.555045
-5.875150
-5.749206
-5.091326
-5.197089
-6.613598
-5.940755
0.283985
0.234304
1.298168
1.383210
0.649239
1.774650
-1.399629
-1.720244
-2.342577
-7.267969
-7.126851
-7.743256
-6.498106
-6.359592
-7.220618
-0.751762
-0.422012
-0.770840
-2.961340
-2.920604
-2.214952
-2.234838
-3.630513
-2.847287
2.904114
2.495915
2.372962
-1.386361
-2.374522
-1.735113
-4.539870
-4.334436
-4.996522
-7.336857
-7.637292
-8.252834
9.055896
9.501140
9.700209
3.520383
2.348574
2.704446
8.752488
9.464591
9.672303
6.387653
5.518686
6.198921
7.093687
5.747207
6.447112
2.800942
2.523663
3.481009
-2.356632
-2.342116
-2.901995
-9.806128
-9.634490
-8.939258
3.308634
2.495928
2.130018
1.938411
2.296740
2.974413
1.201499
1.203281
0.862838
5.926228
5.766528
6.419874
-0.557826
-0.162161
-0.621437
0.521540
0.975245
0.490250
9.016781
9.775862
9.992503
7.095900
6.830008
7.738248
8.304633
7.680945
7.405425
-6.297296
-6.945644
-6.429124
-9.296613
-8.694616
-7.587168
-8.183053
9.798864
10.540434
11.156825
10.417161
3.320634
2.463967
3.764178
4.594021
6.411629
7.143772
8.357229
7.685821
7.523757
8.075812
9.145438
8.585415
-1.492477
-0.584710
0.734602
-0.178747
-11.092011
-10.232929
-1.505754
-0.004990
-0.215679
-0.626127
-1.527715
-0.210395
0.699941
-2.783736
-2.970650
-1.221160
-1.071772
-10.162203
-10.287992
-9.100121
-8.974218
-1.276068
-0.339134
1.046616
0.116804
-12.735973
-12.954640
-12.669713
-12.442546
12.843986
12.732684
12.953217
13.062235
-6.828152
-7.062953
-5.618104
-5.470195
5.097134
5.894672
-7.798558
-8.327890
-7.034559
-6.538131
-11.083934
-10.744468
-9.760365
-10.079324
-0.152218
-0.243361
1.521828
1.616078
8.827384
8.039472
8.860422
9.674123
-11.340516
-10.699487
-10.042529
-10.672050
-9.230012
-9.835232
5.025968
4.206465
5.468274
6.256414
8.952697
8.753917
9.897085
10.102374
7.666320
7.476790
-4.097369
-4.920420
-3.701804
-2.828485
-3.988008
-3.943336
-2.095597
-2.165960
-5.750470
-4.583920
11.101015
11.721300
-11.541268
-10.773367
-10.412945
-11.211678
9.587616
9.908199
10.881253
10.540681
6.670623
7.076066
8.307187
7.830202
5.430673
6.238818
7.356125
6.636306
-0.654995
-1.530285
-0.190314
0.684824
-1.950093
6.088535
5.795939
7.163805
10.088178
9.502061
10.341021
10.926386
10.083742
-8.288773
-8.855168
-6.871356
-5.632547
-6.359238
-9.565571
-9.283293
-8.133227
-8.387430
1.038786
0.866923
2.660148
2.718095
3.595212
2.038909
5.622861
5.977913
7.290384
6.897071
-7.556887
-6.552507
-7.232929
-10.704409
-9.770700
-0.594451
-0.861771
-6.322942
-6.205605
-4.684020
-4.773122
-1.374685
-1.302794
0.380351
0.389854
-5.625429
-5.166924
-1.102327
-1.983400
0.215991
-12.190671
-11.605125
-12.146933
11.404226
11.545811
12.033283
-12.904031
-12.607007
-12.309367
-12.609412
-11.841651
1.501021
0.564346
1.855894
2.790116
-2.519616
-3.716360
-4.548176
-3.258929
-2.400619
-5.338468
2.490431
3.396814
4.676291
3.787896
-6.827759
-7.049781
-11.809862
-11.136193
12.456814
12.017448
12.257157
12.679676
-7.355742
-6.939480
-5.583500
-5.963070
-7.138893
-5.913812
-7.830708
-6.856294
-5.878631
-6.825607
3.682860
2.862855
4.145136
4.941780
4.272189
4.580013
-7.999330
-7.262952
-6.093448
11.445477
11.011361
11.599909
12.044844
4.611239
10.947316
11.014452
11.802827
11.739217
4.175659
5.040853
1.391708
1.212450
2.803800
3.031681
-0.804240
1.513197
0.601334
-7.406435
-7.655911
-6.200504
-5.968544
3.853864
4.756890
6.078328
5.180409
5.697033
6.360016
6.860930
1.510942
2.088224
3.506689
2.871736
-10.257163
-9.085489
1.830675
1.062381
2.381288
3.152733
6.690068
7.455906
8.083797
8.814466
9.663728
8.998278
10.187732
9.214234
9.728824
10.649275
-9.890072
-8.903084
-8.239087
-9.234524
1.548620
4.778872
4.600642
6.274366
-6.322533
-4.752831
-4.631559
-6.607900
-5.662118
-1.511774
-2.393221
-0.247310
0.196337
1.157792
1.544932
0.015791
1.594407
1.439777
-10.260364
4.335931
3.983028
5.399118
8.972451
9.023305
10.167759
10.099359
7.713335
7.745985
-1.175983
-1.840804
8.284307
7.654720
8.714975
9.232702
-0.737369
1.104857
0.521777
-4.484138
-4.151742
-2.661641
-2.927600
11.108678
11.176694
-9.115604
-9.460335
-8.338362
-8.035596
-4.421359
-3.067279
10.925278
10.677402
11.709167
-8.511060
-7.171489
4.946325
6.116225
5.364517
4.877703
-12.726207
-12.105694
-12.224449
-1.069563
0.264562
-0.610699
-0.812205
0.642776
0.968646
-6.502276
-5.709840
-4.430822
-5.273120
-3.118075
-10.481510
-9.876667
-9.000115
-9.664155
-7.775438
-12.636813
-12.348531
-12.638842
-12.929828
1.659595
1.664320
3.310351
3.251918
2.031021
1.117103
2.433003
3.344445
-11.552548
-11.066471
11.609762
10.891701
-10.639944
-10.888720
-12.034334
-12.141822
-11.307483
-11.193552
2.425441
2.332562
4.205969
4.324786
10.961497
11.261501
-3.432016
-2.459991
-1.146482
-2.113689
6.186601
6.735308
-2.951528
-2.123048
-0.726466
-1.545625
-10.911430
-9.890663
-7.355552
-6.540681
-5.290514
-6.135512
-7.752712
-6.495154
-1.715815
-0.766743
0.600597
12.312266
-4.586475
12.661502
12.597458
12.948742
13.011345
-5.087327
-5.357828
4.274789
5.148936
10.961957
10.121679
10.986696
11.418224
9.390947
8.870355
-8.498815
-7.173426
-4.828826
-6.046865
-4.739139
8.351352
7.864039
9.378685
4.619177
3.718599
4.976330
5.856286
10.559036
-3.502937
-3.260167
-1.627941
-1.769972
-5.646672
-4.699025
-4.382717
6.211880
6.338165
7.558148
2.417896
-11.752203
8.795489
-3.990748
-3.066176
-2.650241
11.960678
12.026393
2.779111
4.271804
5.622220
-8.426821
-9.215056
-8.247521
-7.454634
-4.873223
-3.559174
-1.125280
-0.754421
0.671287
0.438207
0.606789
0.726238
-9.308713
-8.327522
0.149542
12.127435
12.554630
12.160079
-10.292581
4.260576
5.609457
7.596111
7.453149
8.680077
8.872527
-7.225037
-7.855811
-6.839218
-6.090423
-3.860572
-3.181093
-2.509991
9.558694
9.095857
3.191636
3.289041
-11.899363
6.984754
8.127649
-13.017099
6.323259
7.251290
8.176961
7.192029
-8.625580
-11.267204
0.970341
2.238141
3.110844
-8.452652
7.932148
3.766917
2.897849
11.508489
6.149858
7.022241
-8.926985
-7.631684
10.902802
11.754719
2.013013
3.320303
4.249628
5.338815
4.323315
3.113600
5.382128
-11.427955
-10.582859
0.186767
11.097651
11.938204
11.703566
-12.042913
-11.941151
-11.541985
2.496576
10.397798
-5.651533
-5.672644
-11.333661
-11.908266
-11.311163
-10.732329
3.304805
1.967621
9.512469
4.870119
4.867341
-9.654011
12.410339
12.356857
-1.730405
-1.129355
-9.850346
-9.449170
12.571059
12.917077
-0.023307
5.113630
11.452215
11.730736
4.048788
5.221490
8.498167
-12.490914
-12.144950
7.250953
6.549887
-2.432935
-1.133382
-8.718667
-5.545361
-4.114046
-3.704334
9.978586
9.755129
-0.342141
11.345189
6.356297
8.642069
8.846927
9.979209
9.754730
-10.032609
-9.908130
4.767770
-12.092464
6.707974
7.404506
8.514792
7.823278
10.266678
2.002321
-0.317840
1.083445
-10.478916
-9.479935
-3.498268
-2.622458
-1.231180
0.165446
12.788516
13.000732
-0.751457
9.051700
9.776506
10.321537
-8.929987
-8.089355
-6.923059
-10.960706
-10.878435
-10.301352
4.404937
4.450468
6.134294
6.120336
-13.046647
11.872972
11.206323
5.493439
2.072880
-2.196166
-3.348910
-2.065769
10.366548
6.134884
4.452612
4.205624
7.796194
8.931101
-3.977446
-3.094526
-10.069568
-10.445018
-3.699897
5.670969
5.894892
7.367314
-9.687942
8.097076
8.841417
6.056934
5.881147
7.195103
12.329398
11.954210
-1.380931
10.293233
10.868957
9.729646
12.775990
3.386972
2.472822
2.932911
-8.590386
-7.561421
-12.170988
-4.319739
-12.754298
-12.699001
10.053950
-2.177716
4.041582
3.842584
10.716428
5.810089
-7.767718
-6.361024
1.555518
0.662755
-12.774754
-12.987922
-7.758236
-6.555036
-5.824053
-7.075608
-4.287948
-3.646891
-2.977054
3.798020
7.616520
8.925606
-0.079612
1.145116
1.589414
-0.246078
-3.081059
-1.323790
-3.989634
-2.226797
2.448438
-2.860494
12.738821
2.909605
-11.498029
-11.273392
12.396286
-5.155214
-10.657236
-10.705276
0.435486
2.228363
-1.717696
7.542340
6.041446
2.866927
-9.508710
7.137808
1.253822
-11.549812
6.807574
8.398801
-12.415164
-12.350461
8.580976
-7.651937
-8.735922
12.663990
8.422601
7.973593
-11.662003
-11.912086
2.127707
-4.738214
-3.892039
-7.471124
8.893868
-2.272941
-0.462826
-8.725889
5.900425
7.047314
2.511087
2.596866
-0.145375
-9.516377
-7.709711
-8.509110
2.026605
9.398709
-8.504924
-8.850894
1.602432
-6.437658
-5.820662
-2.749330
-3.644642
-2.205881
-8.354794
12.370258
4.440654
-2.997267
-1.677815
-9.248801
12.391725
11.869118
-2.001592
11.687300
-11.805948
-11.467405
-5.036405
4.372864
9.478781
-10.177427
-9.201118
9.581693
-0.344377
0.254784
6.175213
-1.894750
-3.833927
-3.939412
-2.319283
6.920825
-4.894321
12.264241
-6.603458
-5.489571
-3.294381
-4.181606
-3.846976
-3.725860
-5.029921
-6.307328
-5.212089
-2.699171
7.840481
2.878783
0.510513
-4.278867
1.212573
-4.663661
-3.618641
-5.461114
-7.614026
9.992718
-5.453641
-4.548564
1.367770
1.980329
2.453900
3.137132
-9.856894
-9.598121
-8.669349
-8.911039
10.036925
10.610126
10.713136
-0.605693
-0.782838
0.795136
0.914388
3.429609
3.049679
4.299450
4.710700
3.401140
3.382690
4.171518
4.161030
4.595560
4.603523
5.494094
5.492727
-3.854322
-3.601286
-3.145388
-2.967527
-2.250726
-2.454797
-1.733189
-1.877002
2.746998
2.783444
4.110462
0.804320
0.750296
1.628636
1.549699
1.964338
2.049887
2.770138
2.885334
-8.364062
-7.716128
-7.355477
-6.745976
-6.672531
-6.096690
-1.441007
-1.562150
-0.735187
-0.835749
-0.491267
-0.389551
0.234258
0.314852
3.555032
3.449862
4.237414
4.126010
4.535703
4.569424
5.209774
5.247504
3.196718
3.430804
3.912961
4.203342
4.647033
4.315271
5.379684
4.996944
-0.510241
-0.589538
-0.260613
-0.338068
0.743300
0.816030
1.206131
1.283667
2.979993
2.911945
3.838935
3.773769
3.954272
4.023635
4.797631
4.861892
-1.531096
-1.573819
-0.672771
-0.724808
-0.404136
-0.354084
0.427863
0.488733
7.099686
7.650206
8.041775
8.586741
-8.408128
-8.422834
-7.400737
-7.391101
3.705100
3.684079
4.765463
4.774137
5.749731
5.747182
0.995346
1.822918
2.259080
3.080661
-4.423282
-4.451244
-3.625373
-3.662112
-3.208256
-3.164715
-2.430912
-2.376976
-2.095422
-2.294254
-1.303776
-1.463429
-1.195932
-1.018702
-0.381254
-0.241660
3.090625
3.044351
3.903365
3.870923
4.339178
4.362152
5.196788
5.205815
-8.627345
-8.026345
-7.442730
-6.838864
7.557685
8.029537
8.685113
9.076086
4.007676
3.819741
4.838744
4.614221
4.916587
5.165979
5.799995
6.093176
2.838082
2.742182
3.550736
3.454592
3.930777
4.035616
4.619008
4.724393
-5.751305
-6.279664
-5.072230
-5.552589
-5.161635
-4.707096
-4.396794
-3.999774
1.331344
1.324995
-2.811903
-2.834157
-2.080627
-2.120499
-1.765233
-1.715581
-1.042741
-0.978203
-0.307093
-0.371573
0.431639
0.351702
0.704897
0.783193
1.423128
1.516529
3.136446
3.231921
3.847318
3.977996
1.437719
2.679654
3.505758
2.986740
3.739348
4.142940
4.871035
1.413770
2.210953
2.611900
3.391189
-7.097529
-7.098218
-6.185720
-6.202774
-5.761600
-5.748064
-4.937491
-4.914367
7.953717
7.701367
8.631875
8.372428
9.035543
9.352543
9.751548
10.079101
-5.579666
-4.883844
-4.499050
-3.746328
-1.179733
-1.286319
-0.422129
-0.484494
-0.157225
-0.089319
0.644137
0.671074
-3.757341
-3.933534
-3.013020
-3.165192
-2.462754
-2.299010
-1.841280
-1.702588
-6.442315
-5.641609
-5.703316
-5.481796
-4.719039
-4.665887
1.694796
1.609375
2.435167
2.343665
-2.982199
-2.199847
-1.798144
-0.997210
-7.005240
-6.096365
-5.663374
-4.830566
-11.343332
-10.971782
-11.238120
-10.861136
1.285495
1.229208
2.023036
2.003282
2.277979
2.315994
3.037305
3.041989
-1.150413
-1.232267
-0.436968
-0.513823
-0.135882
-0.081053
0.583000
0.633349
-11.490230
-11.144405
-10.892053
-0.494802
-0.583142
0.241742
0.195328
0.552181
0.581761
1.324054
1.314396
2.517326
2.389431
3.205938
3.074657
7.637801
7.512762
8.693975
8.547877
8.389566
8.518955
9.374714
9.521603
8.168383
8.322571
8.962498
9.212021
-3.194261
-3.361722
-2.502465
-2.659720
-2.268753
-2.137141
2.602968
3.889218
7.677780
7.412259
8.468374
8.740622
-10.509783
-10.387014
-10.003410
-9.235787
-8.775781
-8.243196
-7.855315
-8.321048
-7.355174
-1.062816
-1.101973
-0.027143
0.029191
0.179963
-5.847806
-5.867919
-5.162996
-5.185209
-4.646953
-4.613279
-3.945454
-3.910974
-4.558034
-4.158593
-3.882143
-3.504815
-2.803448
2.853487
3.737069
-0.015902
-0.098913
0.734411
0.660490
1.012151
1.081844
1.767263
1.826589
-0.597687
-0.603788
0.209438
0.138548
0.509041
0.606038
1.254712
-7.959220
-7.953533
-6.831959
-6.837664
-6.753613
-6.748441
-5.730137
-5.716360
-7.071389
-7.282858
-5.943242
-6.131786
-5.920291
-5.103818
-4.945496
-3.709334
-3.833369
-2.974009
-3.088818
-2.654551
-2.544595
-1.901127
-1.805597
1.012673
0.879825
1.798538
1.606583
1.991058
2.703262
3.010022
2.724997
3.791363
3.446151
3.800662
4.175499
4.516006
4.946787
3.879709
4.778963
4.395787
5.417397
1.970288
1.920444
2.817446
2.784095
3.020320
3.862635
10.756536
11.171083
10.478421
10.878550
-6.864900
-7.018039
-6.257079
-6.409395
-5.901337
-5.764138
-5.213561
-5.083502
-8.868896
-8.229717
-8.118403
-7.506526
4.733254
5.855435
-8.533059
-7.971963
-7.599758
-6.960218
4.354783
4.186701
5.211425
4.976471
5.166394
5.336588
5.943012
6.181877
3.248207
-3.572749
-2.773447
-2.345605
-1.535049
1.577133
1.313584
2.093639
1.755913
2.496630
2.784716
3.973507
5.407798
5.235047
1.413190
2.251275
2.621345
3.438300
-9.186300
-8.452245
-8.574021
-7.842826
-7.569654
-7.652891
-6.657243
-6.740774
-6.740977
-6.650059
-5.774779
-5.682714
-10.729281
-11.095422
-10.500612
-10.137195
-9.290836
-8.996360
-3.277870
-2.460991
-2.034370
-2.187343
-1.334469
-1.406480
5.854173
5.791464
6.773603
6.709231
6.770904
6.833249
7.698906
3.080528
2.850971
3.777990
3.524387
3.876630
4.147521
4.530339
4.825735
-2.432499
-2.590843
-1.711722
1.233821
1.185614
1.874722
3.014394
3.162242
-9.052688
-9.038734
-7.851790
-7.852774
2.091043
1.998476
3.455136
3.626249
1.687053
1.603082
2.379159
2.641592
2.714501
3.336714
3.389970
0.152228
0.087363
0.938775
0.860907
1.235194
1.310279
2.002905
2.093923
3.786997
3.817676
4.554232
4.661592
4.807829
4.772149
5.657626
5.543144
-8.079804
-8.312886
-6.811573
-0.670808
0.189162
0.566431
2.676743
2.645238
3.424799
3.413881
3.898446
4.673767
4.647040
5.440408
5.652025
6.062738
6.276764
6.642608
6.413541
7.200576
6.972887
-5.221933
-5.726706
-4.477226
-4.870644
-4.481840
-4.010852
-3.732094
-3.358439
-7.114345
-7.070365
-6.508797
-6.468735
-5.983680
-6.009047
-5.311508
-5.325869
7.824842
7.838027
8.550958
8.573125
8.961270
8.933212
-7.824208
-7.917031
-6.511716
-6.428574
-6.734348
-5.666427
-5.760371
-5.619975
-4.702620
-4.612624
4.107504
4.794434
5.313589
5.381861
5.985401
6.053612
-0.654177
-0.745728
0.050324
-0.046478
0.292433
0.404658
0.992022
1.111276
-4.585044
-4.239849
-3.807710
-3.520619
-3.179101
-3.398739
-2.457301
-2.617524
0.206745
0.154953
0.929249
0.920293
1.313924
1.298684
2.062918
2.010947
2.548886
2.481932
3.315207
3.615470
4.528665
-6.875372
-7.301619
-6.126576
9.746782
10.064401
10.314712
10.647077
-3.932530
-4.049524
-3.691177
-3.654820
-3.012907
-2.912660
7.028950
8.192705
-5.279223
-5.278359
-4.621301
-4.627534
-4.254936
-4.224825
-3.578280
-3.533731
-5.011452
-5.289772
-4.145709
-4.372621
-4.256094
-3.993545
-3.355007
-3.140151
-2.224208
-2.082781
-1.408904
-1.344405
-0.983762
-1.042196
-0.238027
-0.212395
-8.581590
-8.756431
-8.428683
-8.259043
-7.645288
-7.489853
-3.407825
-2.730713
-2.175138
-3.248120
-2.425292
-2.365794
-1.949302
-1.190880
-1.226479
3.516094
3.346966
4.406921
4.196846
4.529824
5.429087
-5.357381
-5.574534
-4.697786
-4.902737
-4.551489
-4.353384
-3.824749
-3.647629
4.545196
5.197158
5.675704
-0.179956
-0.279493
0.642193
0.560832
0.941868
1.021443
1.773568
1.837118
3.882068
5.105945
5.842238
-5.010901
-3.935148
-3.096129
-2.233497
-1.894146
-1.036662
-1.417483
-1.527865
-0.096987
-0.106770
7.762681
7.691790
8.750285
8.682625
-9.323951
-9.679900
-8.715187
-8.372903
2.236653
3.291399
3.314125
4.052061
4.051070
-0.773464
-0.331264
0.280627
0.811793
-9.995991
-10.100061
-9.222212
-9.328854
-8.634041
-8.544504
-1.920009
-1.100380
-1.177914
-0.546132
-0.470031
0.089258
0.162445
-9.623449
-9.422045
-9.109796
-8.909001
-8.149352
-8.280918
-7.603002
-7.735634
7.779942
-3.709466
-2.902340
-2.605825
-2.653480
-1.869394
-1.856046
-10.365771
-9.749334
-9.999625
-9.367534
8.386615
8.479875
8.833641
9.855190
9.712814
10.216203
10.071403
-5.422300
-5.572280
-4.794136
-4.926582
6.301934
6.092549
6.885233
6.678055
7.321431
7.584041
7.842641
8.101034
-7.824139
-8.136848
-7.221286
-1.021091
-0.258689
0.172267
0.929793
6.127313
5.798904
7.054188
6.607129
6.788650
7.121653
8.103001
-7.619115
-8.015162
-6.703255
-7.054726
1.372837
2.128478
2.567694
3.315377
-2.170115
-2.271086
-1.432484
-1.525447
-1.185905
-1.094229
-0.429089
-0.345085
-4.720882
-4.541850
-4.521533
-3.610656
-3.584303
9.690582
9.431907
10.053794
9.799427
10.801853
11.128236
11.104507
11.420416
0.794676
0.706684
1.762202
1.899796
-9.614599
-9.904028
-8.874866
-9.148731
-9.753496
-9.374101
-2.142569
-2.378493
-1.367401
-1.529220
-1.131660
-1.000855
-0.283443
-0.226098
1.799422
3.010479
3.806763
11.476804
1.925801
-0.303557
-0.397627